# vtk DataFile Version 4.2
File created by MooNMD, Computational Time : 0.000000000, Date & Time: Thu May 26 13:10:00 2022

ASCII
DATASET UNSTRUCTURED_GRID
POINTS 1089 float
0.406250000 0.781250000 0.000000000
0.406250000 0.812500000 0.000000000
0.406250000 0.843750000 0.000000000
0.437500000 0.843750000 0.000000000
0.468750000 0.843750000 0.000000000
0.437500000 0.781250000 0.000000000
0.468750000 0.812500000 0.000000000
0.468750000 0.781250000 0.000000000
0.281250000 0.843750000 0.000000000
0.375000000 0.843750000 0.000000000
0.312500000 0.843750000 0.000000000
0.343750000 0.843750000 0.000000000
0.343750000 0.812500000 0.000000000
0.375000000 0.781250000 0.000000000
0.343750000 0.781250000 0.000000000
0.281250000 0.812500000 0.000000000
0.312500000 0.781250000 0.000000000
0.281250000 0.781250000 0.000000000
0.343750000 1.000000000 0.000000000
0.343750000 0.968750000 0.000000000
0.343750000 0.875000000 0.000000000
0.343750000 0.937500000 0.000000000
0.343750000 0.906250000 0.000000000
0.312500000 0.906250000 0.000000000
0.281250000 0.875000000 0.000000000
0.281250000 0.906250000 0.000000000
0.281250000 1.000000000 0.000000000
0.312500000 0.968750000 0.000000000
0.281250000 0.937500000 0.000000000
0.281250000 0.968750000 0.000000000
0.468750000 0.875000000 0.000000000
0.468750000 0.906250000 0.000000000
0.375000000 0.906250000 0.000000000
0.437500000 0.906250000 0.000000000
0.406250000 0.875000000 0.000000000
0.406250000 0.906250000 0.000000000
0.406250000 1.000000000 0.000000000
0.406250000 0.937500000 0.000000000
0.375000000 0.968750000 0.000000000
0.406250000 0.968750000 0.000000000
0.468750000 0.937500000 0.000000000
0.437500000 0.968750000 0.000000000
0.468750000 1.000000000 0.000000000
0.468750000 0.968750000 0.000000000
0.281250000 0.593750000 0.000000000
0.312500000 0.593750000 0.000000000
0.343750000 0.593750000 0.000000000
0.343750000 0.562500000 0.000000000
0.343750000 0.531250000 0.000000000
0.281250000 0.562500000 0.000000000
0.312500000 0.531250000 0.000000000
0.281250000 0.531250000 0.000000000
0.343750000 0.750000000 0.000000000
0.343750000 0.718750000 0.000000000
0.343750000 0.625000000 0.000000000
0.343750000 0.687500000 0.000000000
0.343750000 0.656250000 0.000000000
0.312500000 0.656250000 0.000000000
0.281250000 0.625000000 0.000000000
0.281250000 0.656250000 0.000000000
0.281250000 0.750000000 0.000000000
0.312500000 0.718750000 0.000000000
0.281250000 0.687500000 0.000000000
0.281250000 0.718750000 0.000000000
0.468750000 0.656250000 0.000000000
0.375000000 0.656250000 0.000000000
0.437500000 0.656250000 0.000000000
0.406250000 0.656250000 0.000000000
0.406250000 0.750000000 0.000000000
0.406250000 0.687500000 0.000000000
0.375000000 0.718750000 0.000000000
0.406250000 0.718750000 0.000000000
0.468750000 0.687500000 0.000000000
0.437500000 0.718750000 0.000000000
0.468750000 0.750000000 0.000000000
0.468750000 0.718750000 0.000000000
0.375000000 0.531250000 0.000000000
0.406250000 0.531250000 0.000000000
0.406250000 0.625000000 0.000000000
0.406250000 0.562500000 0.000000000
0.375000000 0.593750000 0.000000000
0.406250000 0.593750000 0.000000000
0.437500000 0.593750000 0.000000000
0.468750000 0.625000000 0.000000000
0.468750000 0.593750000 0.000000000
0.437500000 0.531250000 0.000000000
0.468750000 0.562500000 0.000000000
0.468750000 0.531250000 0.000000000
0.093750000 0.718750000 0.000000000
0.093750000 0.687500000 0.000000000
0.093750000 0.656250000 0.000000000
0.000000000 0.656250000 0.000000000
0.062500000 0.656250000 0.000000000
0.031250000 0.656250000 0.000000000
0.062500000 0.718750000 0.000000000
0.031250000 0.687500000 0.000000000
0.000000000 0.718750000 0.000000000
0.031250000 0.718750000 0.000000000
0.250000000 0.656250000 0.000000000
0.218750000 0.656250000 0.000000000
0.125000000 0.656250000 0.000000000
0.187500000 0.656250000 0.000000000
0.156250000 0.656250000 0.000000000
0.156250000 0.687500000 0.000000000
0.125000000 0.718750000 0.000000000
0.156250000 0.718750000 0.000000000
0.250000000 0.718750000 0.000000000
0.218750000 0.687500000 0.000000000
0.187500000 0.718750000 0.000000000
0.218750000 0.718750000 0.000000000
0.156250000 0.531250000 0.000000000
0.156250000 0.625000000 0.000000000
0.156250000 0.562500000 0.000000000
0.156250000 0.593750000 0.000000000
0.250000000 0.593750000 0.000000000
0.187500000 0.593750000 0.000000000
0.218750000 0.625000000 0.000000000
0.218750000 0.593750000 0.000000000
0.187500000 0.531250000 0.000000000
0.218750000 0.562500000 0.000000000
0.250000000 0.531250000 0.000000000
0.218750000 0.531250000 0.000000000
0.031250000 0.625000000 0.000000000
0.000000000 0.593750000 0.000000000
0.031250000 0.593750000 0.000000000
0.125000000 0.593750000 0.000000000
0.062500000 0.593750000 0.000000000
0.093750000 0.625000000 0.000000000
0.093750000 0.593750000 0.000000000
0.093750000 0.562500000 0.000000000
0.125000000 0.531250000 0.000000000
0.093750000 0.531250000 0.000000000
0.000000000 0.531250000 0.000000000
0.031250000 0.562500000 0.000000000
0.062500000 0.531250000 0.000000000
0.031250000 0.531250000 0.000000000
0.250000000 0.906250000 0.000000000
0.218750000 0.906250000 0.000000000
0.187500000 0.906250000 0.000000000
0.156250000 0.906250000 0.000000000
0.156250000 1.000000000 0.000000000
0.156250000 0.937500000 0.000000000
0.156250000 0.968750000 0.000000000
0.250000000 0.968750000 0.000000000
0.218750000 0.937500000 0.000000000
0.187500000 0.968750000 0.000000000
0.218750000 1.000000000 0.000000000
0.218750000 0.968750000 0.000000000
0.156250000 0.750000000 0.000000000
0.156250000 0.781250000 0.000000000
0.156250000 0.875000000 0.000000000
0.156250000 0.812500000 0.000000000
0.156250000 0.843750000 0.000000000
0.250000000 0.843750000 0.000000000
0.187500000 0.843750000 0.000000000
0.218750000 0.875000000 0.000000000
0.218750000 0.843750000 0.000000000
0.218750000 0.750000000 0.000000000
0.187500000 0.781250000 0.000000000
0.218750000 0.812500000 0.000000000
0.250000000 0.781250000 0.000000000
0.218750000 0.781250000 0.000000000
0.000000000 0.843750000 0.000000000
0.031250000 0.843750000 0.000000000
0.125000000 0.843750000 0.000000000
0.062500000 0.843750000 0.000000000
0.093750000 0.843750000 0.000000000
0.093750000 0.750000000 0.000000000
0.093750000 0.812500000 0.000000000
0.125000000 0.781250000 0.000000000
0.093750000 0.781250000 0.000000000
0.000000000 0.781250000 0.000000000
0.031250000 0.812500000 0.000000000
0.062500000 0.781250000 0.000000000
0.031250000 0.750000000 0.000000000
0.031250000 0.781250000 0.000000000
0.125000000 0.968750000 0.000000000
0.093750000 1.000000000 0.000000000
0.093750000 0.968750000 0.000000000
0.093750000 0.875000000 0.000000000
0.093750000 0.937500000 0.000000000
0.125000000 0.906250000 0.000000000
0.093750000 0.906250000 0.000000000
0.000000000 0.906250000 0.000000000
0.062500000 0.906250000 0.000000000
0.031250000 0.875000000 0.000000000
0.031250000 0.906250000 0.000000000
0.031250000 1.000000000 0.000000000
0.062500000 0.968750000 0.000000000
0.031250000 0.937500000 0.000000000
0.000000000 0.968750000 0.000000000
0.031250000 0.968750000 0.000000000
0.781250000 0.593750000 0.000000000
0.812500000 0.593750000 0.000000000
0.843750000 0.593750000 0.000000000
0.843750000 0.562500000 0.000000000
0.843750000 0.531250000 0.000000000
0.781250000 0.562500000 0.000000000
0.812500000 0.531250000 0.000000000
0.781250000 0.531250000 0.000000000
0.843750000 0.718750000 0.000000000
0.843750000 0.625000000 0.000000000
0.843750000 0.687500000 0.000000000
0.843750000 0.656250000 0.000000000
0.812500000 0.656250000 0.000000000
0.781250000 0.625000000 0.000000000
0.781250000 0.656250000 0.000000000
0.812500000 0.718750000 0.000000000
0.781250000 0.687500000 0.000000000
0.781250000 0.718750000 0.000000000
1.000000000 0.656250000 0.000000000
0.968750000 0.656250000 0.000000000
0.875000000 0.656250000 0.000000000
0.937500000 0.656250000 0.000000000
0.906250000 0.656250000 0.000000000
0.906250000 0.687500000 0.000000000
0.875000000 0.718750000 0.000000000
0.906250000 0.718750000 0.000000000
1.000000000 0.718750000 0.000000000
0.968750000 0.687500000 0.000000000
0.937500000 0.718750000 0.000000000
0.968750000 0.718750000 0.000000000
0.875000000 0.531250000 0.000000000
0.906250000 0.531250000 0.000000000
0.906250000 0.625000000 0.000000000
0.906250000 0.562500000 0.000000000
0.875000000 0.593750000 0.000000000
0.906250000 0.593750000 0.000000000
1.000000000 0.593750000 0.000000000
0.937500000 0.593750000 0.000000000
0.968750000 0.625000000 0.000000000
0.968750000 0.593750000 0.000000000
0.937500000 0.531250000 0.000000000
0.968750000 0.562500000 0.000000000
1.000000000 0.531250000 0.000000000
0.968750000 0.531250000 0.000000000
0.593750000 0.718750000 0.000000000
0.593750000 0.687500000 0.000000000
0.593750000 0.656250000 0.000000000
0.500000000 0.656250000 0.000000000
0.562500000 0.656250000 0.000000000
0.531250000 0.656250000 0.000000000
0.562500000 0.718750000 0.000000000
0.531250000 0.687500000 0.000000000
0.500000000 0.718750000 0.000000000
0.531250000 0.718750000 0.000000000
0.750000000 0.656250000 0.000000000
0.718750000 0.656250000 0.000000000
0.625000000 0.656250000 0.000000000
0.687500000 0.656250000 0.000000000
0.656250000 0.656250000 0.000000000
0.656250000 0.687500000 0.000000000
0.625000000 0.718750000 0.000000000
0.656250000 0.718750000 0.000000000
0.750000000 0.718750000 0.000000000
0.718750000 0.687500000 0.000000000
0.687500000 0.718750000 0.000000000
0.718750000 0.718750000 0.000000000
0.656250000 0.531250000 0.000000000
0.656250000 0.625000000 0.000000000
0.656250000 0.562500000 0.000000000
0.656250000 0.593750000 0.000000000
0.750000000 0.593750000 0.000000000
0.687500000 0.593750000 0.000000000
0.718750000 0.625000000 0.000000000
0.718750000 0.593750000 0.000000000
0.687500000 0.531250000 0.000000000
0.718750000 0.562500000 0.000000000
0.750000000 0.531250000 0.000000000
0.718750000 0.531250000 0.000000000
0.531250000 0.625000000 0.000000000
0.500000000 0.593750000 0.000000000
[...]
POINT_DATA 1089
SCALARS p float
LOOKUP_TABLE default
0.000073816
0.000053956
0.000021521
-0.000166563
-0.000314807
-0.000102033
-0.000272488
-0.000245364
0.001062359
0.000245064
0.000773103
0.000498013
0.000506211
0.000278414
0.000506758
0.001036847
0.000752954
0.001010611
0.000210971
0.000300916
0.000480015
0.000393037
0.000448267
0.000767540
0.001086121
0.001105400
0.001106260
0.000686425
0.001112968
0.001095291
-0.000376482
-0.000464327
0.000157281
-0.000305487
-0.000026790
-0.000096475
-0.000531757
-0.000200250
-0.000048970
-0.000351544
-0.000593526
-0.000596613
-0.001019204
-0.000776383
0.000770144
0.000561721
0.000363966
0.000307126
0.000237031
0.000693037
0.000412320
0.000598389
0.000500775
0.000488588
0.000408974
0.000469872
0.000443761
0.000657283
0.000831936
0.000881221
0.000983469
0.000716200
0.000921023
0.000954258
-0.000239751
0.000244098
-0.000100480
0.000061660
0.000083317
0.000076574
0.000276298
0.000083936
-0.000229193
-0.000084456
-0.000230491
-0.000225669
0.000073326
-0.000077833
0.000039207
-0.000029896
0.000178969
0.000008884
-0.000144212
-0.000256380
-0.000278467
-0.000215382
-0.000305745
-0.000338257
0.002292814
0.002254286
0.002212509
0.003718147
0.002080381
0.002447178
0.002126478
0.002477183
0.003798118
0.002503481
0.001112227
0.001347146
0.002038713
0.001582934
0.001816044
0.001868413
0.002133301
0.001916775
0.001197896
0.001397459
0.001683632
0.001442476
0.001436420
0.001752665
0.001567670
0.001671733
0.000987286
0.001440377
0.001286678
0.001211334
0.001214996
0.001116962
0.000794636
0.001000456
0.002402030
0.003637555
0.002332969
0.001898355
0.001986654
0.002158473
0.002083983
0.001982085
0.001658504
0.001847640
0.003465325
0.002232811
0.001780478
0.002095845
0.001452043
0.001798051
0.002134948
0.002453738
0.002952962
0.002605071
0.002740884
0.001515601
0.001875052
0.002349068
0.002046126
0.001936242
0.001968154
0.002029156
0.002317929
0.002105476
0.002201201
0.001357593
0.001934491
0.001721350
0.001650812
0.001486807
0.001788444
0.001588549
0.001273217
0.001534472
0.004094252
0.002819691
0.002439610
0.002405666
0.002603803
0.002337548
0.002483975
0.002246670
0.002398111
0.003900780
0.002680988
0.002204975
0.002537738
0.002592294
0.003128986
0.003882932
0.003330831
0.002763901
0.003178502
0.002743808
0.002960610
0.004548508
0.002828988
0.003029345
0.003332077
0.005192764
0.003209178
0.003885819
0.007115081
0.003934432
-0.000461909
-0.000368519
-0.000256047
-0.000382013
-0.000508488
-0.000558268
-0.000588801
-0.000651856
0.000137685
-0.000136325
0.000064199
-0.000028133
-0.000162308
-0.000367051
-0.000277873
-0.000004315
-0.000198046
-0.000130407
0.002114374
0.000406877
0.000118836
0.000025126
0.000236567
0.000337226
0.000289791
0.000410778
0.002147563
0.000518040
0.000207074
0.000595172
-0.000416561
-0.000355306
0.000111475
-0.000191314
-0.000130199
-0.000033277
0.001902046
-0.000267224
0.000263995
0.000094506
-0.000624401
-0.000094262
0.001532674
-0.000293519
-0.000492323
-0.000514316
-0.000541631
-0.000354249
-0.000505184
-0.000442843
-0.000470250
-0.000427887
-0.000337534
-0.000419025
-0.000373962
-0.000450222
-0.000553096
-0.000506133
-0.000540820
-0.000496114
-0.000487123
-0.000456979
-0.000239622
-0.000386907
-0.000404312
-0.000331298
-0.000730064
-0.000588891
-0.000685686
-0.000637954
-0.000535543
-0.000623697
-0.000518735
-0.000589476
-0.000736041
-0.000659285
-0.000697194
-0.000725142
-0.000462314
-0.000392397
-0.000484983
-0.000631762
-0.000555710
-0.000572323
-0.000604529
-0.000636621
-0.000707205
-0.000667357
-0.000445508
-0.000509869
-0.000610414
-0.000536389
-0.000224354
-0.000325014
-0.000425999
-0.000669244
-0.000473198
-0.000532581
-0.000248820
-0.000383677
-0.000305027
-0.000273662
-0.000425301
-0.000402582
-0.000399856
-0.000390009
-0.000388655
-0.000306668
-0.000212809
-0.000213534
-0.000285255
-0.000334849
-0.000225972
-0.000249951
-0.000420865
-0.000484641
-0.000454027
-0.000508320
-0.000496160
-0.000477572
-0.000477377
-0.000449624
-0.000471943
-0.000353895
-0.000448162
-0.000465533
-0.000418047
-0.000426969
-0.000685177
-0.001039201
-0.000813785
-0.000531501
-0.000682104
-0.000517967
-0.000589021
-0.000570205
-0.000627393
-0.000540674
-0.000623382
-0.001187150
-0.000898658
-0.000748695
-0.000886302
-0.000925763
0.000456922
0.000477796
0.000477806
0.000463110
0.001877658
0.000259625
0.000639670
0.000639181
0.000271754
0.000650241
0.002038572
0.000654616
-0.000112715
-0.000005345
0.000363852
0.000109494
0.000233474
0.000190873
0.000237531
0.000367351
0.000223786
-0.000150508
-0.000014269
0.000086927
-0.000076784
-0.000038033
-0.000243347
-0.000035480
0.000211825
0.000093674
0.000169244
-0.000128005
0.000061374
-0.000011561
-0.000034776
-0.000283789
-0.000109318
-0.000080937
-0.000202871
-0.000156491
0.000645694
0.001799655
0.000707664
0.000294485
0.000263312
0.000440205
0.000409984
0.000127941
0.000353102
0.000094981
0.000229894
0.002674826
0.000903793
0.000179479
0.001645006
0.001203396
-0.000959802
-0.001010389
-0.001071556
-0.001072687
-0.001073738
-0.000950785
-0.001005438
-0.000944537
-0.001096628
-0.001072205
-0.001084166
-0.001076098
-0.001027330
-0.000972269
-0.000988428
-0.001059908
-0.001008087
-0.001030644
-0.001796775
-0.001501479
-0.001138244
-0.001339984
-0.001220585
-0.001206417
-0.001141937
-0.001197966
-0.001528911
-0.001424972
-0.001272058
-0.001351292
-0.001155269
-0.001260743
-0.001237023
-0.001260944
-0.001148696
-0.001251794
-0.001976541
-0.001402278
-0.001569060
-0.001617884
-0.001411088
-0.001640133
-0.001978218
-0.001630127
-0.000910716
-0.000886642
-0.000854945
-0.000769590
-0.000831667
-0.000803464
-0.000877588
-0.000825783
-0.000784504
-0.000835592
-0.000957234
-0.000932053
-0.000874691
-0.000911188
-0.000892751
-0.000925891
-0.000936179
-0.000955990
-0.001007584
-0.000960255
-0.000972686
-0.000989011
-0.000740389
-0.000857202
-0.000780757
-0.000819752
-0.000916856
-0.000847878
-0.000905107
-0.000879912
-0.000786044
-0.000856701
-0.000888195
-0.000835391
-0.000768941
-0.000696009
-0.000722419
-0.000794413
-0.000746992
-0.000816129
-0.000770596
-0.000718660
-0.000698593
-0.000660559
-0.000564379
-0.000664062
-0.000625906
-0.000594054
-0.001205983
-0.001166412
-0.001108858
0.000160464
-0.001475345
-0.001246261
-0.001572350
-0.001318707
-0.000190150
-0.001364845
-0.000982359
-0.001004382
-0.001050856
-0.001021762
-0.001035261
-0.001071423
-0.001129292
-0.001097356
-0.001017519
-0.001026960
-0.001071357
-0.001045064
-0.000629868
-0.000741246
-0.000985731
-0.000838897
-0.000920593
-0.000926575
-0.000931453
-0.000974154
-0.000933623
-0.000738759
-0.000785295
-0.000881038
-0.000832453
-0.000815833
-0.001145881
0.000592033
-0.001017471
-0.000906786
-0.001276729
-0.001030911
-0.000931401
-0.000517709
-0.000810809
-0.000689312
-0.000671499
0.001070353
-0.000862930
-0.000981108
-0.000493895
-0.000686341
-0.001197249
-0.001203452
-0.001212163
-0.001216612
-0.001343376
-0.001251340
-0.001294543
-0.001294948
-0.001247352
-0.001283970
-0.001317906
-0.001272600
-0.001116614
-0.001132693
-0.001188897
-0.001148629
-0.001166784
-0.001112817
-0.001149539
-0.001164720
-0.001131155
-0.001061961
-0.001106212
-0.001103216
-0.001055164
-0.001080593
-0.000626501
-0.001332770
-0.001187434
-0.001537370
-0.001245772
-0.001230683
-0.001248044
-0.001166219
-0.001243750
-0.000451818
-0.001370201
-0.001585697
-0.001387192
-0.001388363
-0.001283231
-0.001298605
-0.001277949
-0.001238796
-0.001234612
-0.001214161
-0.001231124
-0.000696737
-0.001436469
-0.001273189
-0.001183519
-0.000546320
-0.001367407
-0.001042188
-0.000416453
-0.000908826
0.000314639
0.000472182
0.000643508
0.001276041
0.000873995
0.001087272
0.000513125
0.000886650
0.000860262
0.000696853
-0.000193606
0.000406533
-0.000029051
0.000176912
0.000035139
0.000109650
-0.000091122
-0.000319040
-0.000275020
-0.000428277
0.001857028
0.000604616
0.000328562
0.000423056
0.000463014
0.000234562
-0.000059421
0.000055954
0.001192132
0.000352376
0.000016016
0.000154499
0.001293275
0.001678031
0.001473874
0.000719399
0.001239605
0.000823519
0.000983837
0.002550211
0.000944824
0.000886164
0.001174646
0.001919014
0.001426912
0.001451507
0.003110006
0.001702710
-0.000754358
-0.000658920
-0.000560005
-0.000698605
-0.000609227
-0.000655093
-0.000776527
-0.000725057
-0.000815549
-0.000796348
-0.000200938
-0.000295241
-0.000506015
-0.000375946
-0.000445405
-0.000574905
-0.000727632
-0.000693697
-0.000519232
-0.000453802
-0.000649610
-0.000592364
0.000152734
0.000054075
-0.000312136
-0.000058024
-0.000181321
0.000171554
-0.000074929
-0.000126833
0.000042164
0.000484960
0.000198116
0.000204017
0.000518963
0.000352886
-0.000588374
-0.000596459
-0.000526419
-0.000278554
-0.000450345
-0.000461796
-0.000367922
-0.000135557
-0.000281175
-0.000079707
-0.000203404
-0.000512646
-0.000470205
-0.000316967
-0.000376274
-0.000420161
-0.000566393
-0.000744843
-0.000892245
-0.000783559
-0.000842776
-0.000794803
-0.000409022
-0.000530051
-0.000071231
-0.000231508
-0.000794759
-0.000871806
-0.000926797
-0.000920219
-0.000938023
-0.000863167
-0.000687544
-0.000764656
-0.000700733
-0.000829367
-0.000792260
-0.000769713
-0.001072543
-0.001066659
-0.000992386
-0.001053373
-0.001029696
-0.000842058
-0.000980885
-0.000900325
-0.000918334
-0.000939947
-0.001001436
-0.000929080
-0.000866989
-0.000935463
-0.001025213
-0.001359850
-0.001220412
-0.001067990
-0.001147265
-0.001010854
-0.001103162
-0.001247797
-0.001171709
-0.001136036
-0.001219048
-0.001768874
-0.001379286
-0.001332705
-0.001584265
-0.001500769
-0.000050386
-0.000063394
0.000034389
0.000254124
0.000849601
0.000286394
0.000408864
0.000037223
-0.000086391
0.000144097
0.000779280
0.000026139
-0.000640094
-0.000488610
0.000083951
-0.000311971
-0.000116368
-0.000298908
-0.000270159
-0.000183937
-0.000328675
-0.000690121
-0.000574644
-0.000467260
-0.000537115
-0.000589094
0.001680590
0.001278509
0.000131547
0.000856485
0.000462338
-0.000355272
0.000163579
-0.000331686
-0.000111207
0.000757215
0.000859447
0.000161521
0.000100400
0.000464791
0.000830262
0.001568784
0.001407201
0.000770083
0.001202960
0.000597108
0.001049992
0.002622376
0.001579845
0.001711891
0.002118982
0.002942439
0.002118639
0.002444672
0.003601558
0.002892230
-0.000127201
0.000266929
0.000765242
0.000646557
0.000774960
0.000742476
-0.000223915
0.000075427
-0.000812684
-0.000425362
0.000494706
0.000736732
0.000615184
0.000690270
0.000263980
-0.000088419
-0.000088784
0.000131741
-0.000119014
-0.000176213
0.003756854
0.002104637
0.001158045
0.002087778
0.001635592
0.001519739
0.000900853
0.001339987
0.003569803
0.002043991
0.001793365
0.001900774
0.001493791
0.002503493
0.002247459
0.001732836
0.002028450
0.001313669
0.001854731
0.003979291
0.002330037
0.002156290
0.002284040
0.002719129
0.002926228
0.002582194
0.004966816
0.003092018
-0.000479364
-0.000261255
-0.000075679
0.002152481
0.000215735
0.000131387
-0.000271889
-0.000109364
0.001733650
-0.000441610
-0.000342598
-0.000484898
-0.000301970
-0.000517479
-0.000452042
-0.000564237
-0.000618171
-0.000681796
-0.000417263
-0.000529322
-0.000670736
-0.000583042
-0.000461473
-0.000355597
-0.000364807
-0.000309578
-0.000315282
-0.000379604
-0.000445757
-0.000463130
-0.000479680
-0.001149145
-0.000588047
-0.000555345
-0.000701291
-0.000739647
0.000252694
0.001957094
0.000270781
-0.000125147
0.000374236
0.000050068
0.000106567
-0.000286162
0.000095375
-0.000158358
-0.000002712
0.001933668
0.000251825
0.000218132
-0.000337328
0.000283137
-0.001006948
-0.001016941
-0.001041770
-0.001665949
-0.001137548
-0.001303343
-0.001153804
-0.001375105
-0.002002962
-0.001415842
-0.000784452
-0.000859668
-0.000981472
-0.000908058
-0.000942482
-0.000879478
-0.000901175
-0.000816708
-0.000637401
-0.000794003
-0.000748318
-0.000690885
-0.000025940
-0.001535766
-0.001001061
-0.001096982
-0.001050120
-0.000692103
-0.000983048
-0.000884904
-0.000865554
0.000828690
-0.001389149
-0.000806737
-0.000806993
-0.001139535
-0.001252538
-0.001303971
-0.001250543
-0.001088960
-0.001178309
-0.001080833
-0.001125798
-0.000550167
-0.001177436
-0.001587957
-0.001568266
-0.001577695
-0.001242214
-0.001493410
-0.000655209
-0.001380516
0.001063674
0.000687336
0.000250690
-0.000160009
0.001507987
0.000111491
0.000193628
0.001622471
0.001067914
0.000680562
0.002853488
0.001198089
-0.000755675
-0.000693258
-0.000372692
-0.000620228
-0.000520343
0.000313464
-0.000224912
0.000352178
0.000067652
-0.000552278
-0.000527419
-0.000174053
-0.000262176
-0.000379831
-0.000442904
-0.000642686
-0.000755187
-0.000820890
-0.000866324
-0.001004264
-0.000957239
-0.000855979
-0.000994570
-0.001587498
-0.001010538
-0.001109597
-0.001384307
-0.001254215
-0.000085179
0.000741229
0.000032677
-0.000695430
-0.000104143
-0.000426212
-0.000431149
0.001209164
-0.000110712
-0.000140905
0.000495969
0.002192201
0.000679799
0.001228336
0.002883287
0.001821058
-0.000186401
0.000210085
0.000281222
0.000216063
0.003681929
0.001056590
0.001978044
0.003341748
0.001404493
0.002183565
0.004265414
0.002578163
0.002030502
0.000001992
-0.000371179
-0.000452924
-0.000591894
-0.000871961
-0.000463937
-0.000482016
-0.000476733
0.001815716
0.000340024
-0.000113359
-0.000133903
0.000338191
-0.001904674
-0.001142666
-0.000740087
-0.000935561
-0.000836654
0.000367545
-0.000958414
-0.000557675
-0.000988054
-0.001355860
-0.001151519
-0.001151210
-0.000677993
-0.001198584
0.001491555
0.002212117
0.000571951
-0.000645315
-0.000015884
0.000002931
-0.000390500
-0.001090427
-0.000822644
-0.001150294
-0.001008116
0.001122601
-0.000164080
-0.000524669
0.002155780
0.000379752
0.001576579
0.003843868
0.001235312
0.002106277
-0.000340659
-0.000271846
-0.000188788
-0.001404582
-0.000769425
-0.000331950
-0.001034696
0.000939138
0.000667238
-0.000877187
0.000329419
-0.000628629
0.003313918
-0.001144771
0.001308266
0.006436498
0.005218425
-0.000054769
0.003548751
-0.000477198
-0.001900004


SCALARS u1 float
LOOKUP_TABLE default
0.291770600
0.457234385
0.628111527
0.684835667
0.732736271
0.361812486
0.579428416
0.428189461
0.343318451
0.563917415
0.419649756
0.493835735
0.316557227
0.219707648
0.147432913
0.171749324
0.076914044
0.010272383
1.000000000
0.050867305
0.679213993
0.949641854
0.861559372
0.786810964
0.524564647
0.703181246
1.000000000
-0.058728860
0.783307678
-0.177260858
0.889017929
1.040276890
0.925724530
1.016277925
0.804830047
0.977744392
1.000000000
1.061834274
0.150123852
0.237857094
1.109578222
0.313247502
1.000000000
0.375947056
-0.769364895
-0.752841389
-0.721072427
-0.831971920
-0.926722023
-0.859469306
-0.937806746
-0.932529179
-0.014666713
-0.170482593
-0.597115926
-0.320073407
-0.462755471
-0.511929713
-0.664905389
-0.548411657
-0.142109048
-0.232714098
-0.421719941
-0.286084006
-0.177026099
-0.402800561
-0.258074192
-0.333951127
0.130386157
-0.182778310
-0.101495394
-0.027763888
-0.025384001
0.048793080
0.277482676
0.126346900
-0.900301330
-0.859658165
-0.479779367
-0.745777890
-0.675602352
-0.618018149
-0.549958533
-0.327049283
-0.473127717
-0.806025884
-0.612233859
-0.740771480
-0.285725431
-0.338475569
-0.385073275
0.000000000
-0.273126242
-1.056146621
-0.202905130
-1.051172737
0.000000000
-1.041062433
-0.570259038
-0.575467095
-0.469864762
-0.561951323
-0.527558380
-0.450743271
-0.338612765
-0.365227056
-0.328390367
-0.471208063
-0.370471241
-0.357329518
-0.726462368
-0.594851559
-0.695862352
-0.651440921
-0.769099025
-0.711773898
-0.669055925
-0.750438830
-0.807868391
-0.817689297
-0.909807626
-0.868603636
-1.055388539
0.000000000
-1.048338177
-0.567556479
-0.323995425
-0.424949923
-0.457317118
-0.481228883
-0.623031283
-0.495645907
0.000000000
-1.034722259
-0.350455172
-1.014427669
0.612426994
0.516290989
0.416488026
0.315049505
1.000000000
0.334054708
-0.718033235
-0.303300664
0.575082724
-0.573770267
1.000000000
-0.435638828
-0.271409755
-0.169235141
0.191221727
-0.058214383
0.062283087
0.266963751
0.123649256
0.355981000
0.192887590
-0.234327636
-0.142756744
0.039991270
-0.050215669
-0.102106689
0.000000000
-0.959338811
0.012920895
-0.014476415
-0.016631205
-0.227146216
-0.092599974
-0.177973548
-0.162807766
0.000000000
-0.985331465
-0.116293363
-1.026436435
-1.007761488
-0.873154087
1.000000000
-1.032278693
0.062642161
0.075745296
0.215536657
0.128812245
0.000000000
0.075371537
-0.930612546
-0.907675037
1.000000000
-1.181768593
-0.977511142
0.000000000
-1.952264836
0.332062224
0.362793890
0.372714909
0.298847529
0.217202775
0.233952377
0.182119153
0.128626931
0.551066557
0.436571554
0.527083610
0.488531843
0.502772152
0.420146863
0.495849520
0.586706509
0.557318127
0.603216780
0.000000000
1.122290328
0.449473176
0.266968372
0.379159811
0.398718879
0.493248131
0.407485793
0.000000000
1.126936157
0.285019308
1.124396532
0.229742290
0.212450350
0.349622900
0.264908850
0.357813732
0.311123785
0.000000000
0.220312156
1.110961136
1.093514543
0.151713493
1.070583759
0.000000000
1.042863172
0.412870646
0.291267010
0.161599668
-0.092661566
0.078547641
-0.006843271
0.347973450
0.137359410
0.203155927
0.277560241
0.470778472
0.430278402
0.240357123
0.376843849
0.312803842
0.422354255
0.470771698
0.520218974
0.602929201
0.516255886
0.559748374
0.587851995
-0.202510002
0.193005262
-0.067844486
0.065157091
0.283905020
0.147600869
0.331319544
0.221440428
-0.108379480
0.103322233
0.060223880
-0.019816331
-0.153534642
-0.389309370
-0.300379112
-0.023271531
-0.208315407
0.025344556
-0.115209037
-0.257036901
-0.299420176
-0.396499128
-0.665414399
-0.444306774
-0.491319579
-0.581641804
0.710330733
0.793490823
0.867990008
1.000000000
0.856792930
0.537906040
0.677371295
0.549702038
1.000000000
0.564633474
0.605740981
0.679023213
0.835756000
0.740867118
0.792641908
0.763452075
0.723580640
0.724211590
0.644321908
0.687837897
0.711885050
0.685532213
0.770713376
0.797939534
0.811075852
0.813870228
0.818244117
0.525782606
0.727160454
0.659619998
0.630213397
0.489429432
0.671958546
0.591482722
0.413112620
0.544235202
0.526670222
1.000000000
0.512655476
0.904914579
1.000024612
0.931685791
0.982810843
1.049036210
1.019984546
0.923447863
1.042238250
1.000000000
0.492825897
1.088048427
0.426152944
0.464650315
0.404771030
0.389871608
0.361853732
0.319273812
0.000000000
0.215179324
1.033780793
1.114224168
0.269715754
1.069382955
0.000000000
1.096017345
0.675790837
0.619165392
0.407289923
0.555282627
0.484774050
0.559598787
0.527348049
0.481611635
0.551949183
0.671557933
0.640763270
0.605801875
0.632686176
0.645262600
1.000000000
0.549906810
0.423103459
0.285130775
0.344684086
0.620818068
0.434211127
0.580689228
0.527572206
1.000000000
0.559362207
0.478292473
0.574497413
0.570157068
0.987964756
0.000000000
0.931940447
0.262449811
0.113784056
0.260278983
0.187089335
1.000000000
0.145477502
0.551807881
0.569847874
0.000000000
0.903978837
0.601835107
1.000000000
1.380128129
-0.773208531
-0.646568701
-0.487622624
-0.415016972
-0.332641309
-0.748965558
-0.540459327
-0.712352352
-0.644145201
-0.548509413
-0.628266609
-0.595917732
-0.702185071
-0.784257688
-0.781571093
-0.699192563
-0.764876569
-0.734162583
0.000000000
-0.728633430
-0.465435764
-0.225978231
-0.320390750
-0.415266129
-0.572166362
-0.492150034
0.000000000
-0.794338053
-0.453728512
-0.826374597
-0.091003344
0.174660660
-0.210734794
0.040028585
-0.298670646
-0.089518229
0.000000000
0.065399668
-0.633625955
-0.514151330
0.385340614
-0.375382226
0.000000000
-0.222666460
-0.486865426
-0.582574574
-0.675845281
-0.334897070
-0.575835480
-0.460779449
-0.381819544
-0.362674441
-0.144338562
-0.266339824
-0.832704901
-0.855045379
-0.756885590
-0.848913649
-0.815511319
-0.736881045
-0.577839620
-0.651556745
-0.747273304
-0.801689198
-0.705444193
-0.737676103
-1.029824325
-0.885573330
-0.993878510
-0.945464452
-0.866408073
-0.951700130
-0.896668360
-0.925768611
-1.005242823
-0.941860418
-0.847261310
-0.944776426
-0.557937804
-0.529494415
-0.651641273
-0.909160457
-0.758476076
-0.764263545
-0.845656749
-0.918118981
-1.020503518
-0.980028663
-0.708264670
-0.739608759
-0.911814711
-0.819799327
-0.226016599
-0.183693759
-0.135566943
0.000000000
-0.090492031
0.817761634
-0.152892790
0.776816421
0.000000000
0.736190472
-0.561650382